LAMMPS data file via Yifan's python script

864 atoms
2 atom types

0.00000000 23.46851630 xlo xhi
0.00000000 22.06071794 ylo yhi
0.00000000 18.07303703 zlo zhi

Masses

1 15.9994
2 1.00794

Atoms # atomic

1 1 1.30000000 1.76000000 3.32000000 0 0 0
2 1 5.22000000 4.55000000 1.06000000 0 0 0
3 1 6.59000000 5.39000000 3.31000000 0 0 0
4 1 5.22000000 4.57000000 5.56000000 0 0 0
5 1 2.64000000 0.91000000 5.58000000 0 0 0
6 1 2.63000000 5.51000000 5.65000000 0 0 0
7 1 5.17000000 1.79000000 1.12000000 0 0 0
8 1 5.25000000 1.81000000 5.67000000 0 0 0
9 1 1.32000000 4.61000000 7.91000000 0 0 0
10 1 1.38000000 4.52000000 3.40000000 0 0 0
11 1 2.61000000 5.41000000 1.10000000 0 0 0
12 1 2.59000000 0.82000000 1.07000000 0 0 0
13 1 6.46000000 0.87000000 3.37000000 0 0 0
14 1 6.49000000 0.81000000 7.92000000 0 0 0
15 1 6.59000000 5.41000000 7.81000000 0 0 0
16 1 1.35000000 1.85000000 7.83000000 0 0 0
17 1 9.12000000 1.76000000 3.32000000 0 0 0
18 1 13.05000000 4.55000000 1.15000000 0 0 0
19 1 14.41000000 5.39000000 3.40000000 0 0 0
20 1 13.10000000 4.49000000 5.66000000 0 0 0
21 1 10.41000000 0.84000000 5.58000000 0 0 0
22 1 10.51000000 5.43000000 5.56000000 0 0 0
23 1 13.07000000 1.79000000 1.16000000 0 0 0
24 1 13.02000000 1.73000000 5.67000000 0 0 0
25 1 9.20000000 4.54000000 7.82000000 0 0 0
26 1 9.20000000 4.52000000 3.31000000 0 0 0
27 1 10.46000000 5.49000000 1.06000000 0 0 0
28 1 10.46000000 0.89000000 1.07000000 0 0 0
29 1 14.31000000 0.79000000 3.42000000 0 0 0
30 1 14.36000000 0.88000000 7.92000000 0 0 0
31 1 14.41000000 5.41000000 7.90000000 0 0 0
32 1 9.12000000 1.78000000 7.83000000 0 0 0
33 1 16.94000000 1.76000000 3.32000000 0 0 0
34 1 20.92000000 4.47000000 1.06000000 0 0 0
35 1 22.23000000 5.39000000 3.31000000 0 0 0
36 1 20.87000000 4.57000000 5.56000000 0 0 0
37 1 18.23000000 0.84000000 5.58000000 0 0 0
38 1 18.28000000 5.51000000 5.56000000 0 0 0
39 1 20.84000000 1.71000000 1.07000000 0 0 0
40 1 20.82000000 1.81000000 5.62000000 0 0 0
41 1 17.02000000 4.54000000 7.82000000 0 0 0
42 1 17.02000000 4.52000000 3.31000000 0 0 0
43 1 18.36000000 5.49000000 1.10000000 0 0 0
44 1 18.23000000 0.82000000 1.07000000 0 0 0
45 1 22.11000000 0.87000000 3.37000000 0 0 0
46 1 22.19000000 0.88000000 7.83000000 0 0 0
47 1 22.18000000 5.48000000 7.81000000 0 0 0
48 1 17.02000000 1.78000000 7.87000000 0 0 0
49 1 1.35000000 9.19000000 3.32000000 0 0 0
50 1 5.28000000 11.83000000 1.15000000 0 0 0
51 1 6.53000000 12.81000000 3.40000000 0 0 0
52 1 5.28000000 11.84000000 5.66000000 0 0 0
53 1 2.64000000 8.27000000 5.58000000 0 0 0
54 1 2.71000000 12.86000000 5.61000000 0 0 0
55 1 5.28000000 9.07000000 1.12000000 0 0 0
56 1 5.28000000 9.08000000 5.62000000 0 0 0
57 1 1.40000000 11.96000000 7.86000000 0 0 0
58 1 1.32000000 11.95000000 3.40000000 0 0 0
59 1 2.69000000 12.77000000 1.15000000 0 0 0
60 1 2.67000000 8.17000000 1.12000000 0 0 0
61 1 6.57000000 8.14000000 3.37000000 0 0 0
62 1 6.49000000 8.16000000 7.92000000 0 0 0
63 1 6.61000000 12.83000000 7.86000000 0 0 0
64 1 1.35000000 9.21000000 7.83000000 0 0 0
65 1 9.17000000 9.19000000 3.41000000 0 0 0
66 1 13.05000000 11.90000000 1.06000000 0 0 0
67 1 14.35000000 12.81000000 3.31000000 0 0 0
68 1 13.10000000 11.84000000 5.56000000 0 0 0
69 1 10.41000000 8.19000000 5.67000000 0 0 0
70 1 10.51000000 12.79000000 5.65000000 0 0 0
71 1 13.07000000 9.14000000 1.16000000 0 0 0
72 1 13.02000000 9.08000000 5.67000000 0 0 0
73 1 9.20000000 11.89000000 7.91000000 0 0 0
74 1 9.15000000 11.95000000 3.40000000 0 0 0
75 1 10.45000000 12.84000000 1.15000000 0 0 0
76 1 10.46000000 8.25000000 1.17000000 0 0 0
77 1 14.31000000 8.14000000 3.42000000 0 0 0
78 1 14.39000000 8.16000000 7.88000000 0 0 0
79 1 14.36000000 12.83000000 7.81000000 0 0 0
80 1 9.12000000 9.13000000 7.92000000 0 0 0
81 1 16.94000000 9.11000000 3.42000000 0 0 0
82 1 20.84000000 11.83000000 1.11000000 0 0 0
83 1 22.15000000 12.74000000 3.35000000 0 0 0
84 1 20.92000000 11.84000000 5.66000000 0 0 0
85 1 18.29000000 8.27000000 5.67000000 0 0 0
86 1 18.33000000 12.79000000 5.56000000 0 0 0
87 1 20.84000000 9.07000000 1.16000000 0 0 0
88 1 20.92000000 9.08000000 5.62000000 0 0 0
89 1 16.97000000 11.96000000 7.82000000 0 0 0
90 1 16.94000000 11.87000000 3.36000000 0 0 0
91 1 18.28000000 12.84000000 1.15000000 0 0 0
92 1 18.21000000 8.25000000 1.12000000 0 0 0
93 1 22.21000000 8.14000000 3.37000000 0 0 0
94 1 22.19000000 8.24000000 7.92000000 0 0 0
95 1 22.23000000 12.76000000 7.90000000 0 0 0
96 1 17.00000000 9.21000000 7.92000000 0 0 0
97 1 1.30000000 16.47000000 3.32000000 0 0 0
98 1 5.30000000 19.25000000 1.11000000 0 0 0
99 1 6.53000000 20.17000000 3.40000000 0 0 0
100 1 5.20000000 19.20000000 5.61000000 0 0 0
101 1 2.64000000 15.62000000 5.58000000 0 0 0
102 1 2.63000000 20.22000000 5.56000000 0 0 0
103 1 5.17000000 16.50000000 1.12000000 0 0 0
104 1 5.28000000 16.44000000 5.62000000 0 0 0
105 1 1.32000000 19.32000000 7.82000000 0 0 0
106 1 1.30000000 19.23000000 3.36000000 0 0 0
107 1 2.69000000 20.12000000 1.15000000 0 0 0
108 1 2.59000000 15.52000000 1.07000000 0 0 0
109 1 6.54000000 15.57000000 3.33000000 0 0 0
110 1 6.54000000 15.59000000 7.92000000 0 0 0
111 1 6.51000000 20.11000000 7.86000000 0 0 0
112 1 1.35000000 16.56000000 7.83000000 0 0 0
113 1 9.17000000 16.54000000 3.41000000 0 0 0
114 1 13.13000000 19.25000000 1.11000000 0 0 0
115 1 14.41000000 20.09000000 3.40000000 0 0 0
116 1 13.05000000 19.27000000 5.66000000 0 0 0
117 1 10.49000000 15.54000000 5.63000000 0 0 0
118 1 10.43000000 20.14000000 5.61000000 0 0 0
119 1 12.99000000 16.50000000 1.12000000 0 0 0
120 1 13.07000000 16.51000000 5.58000000 0 0 0
121 1 9.12000000 19.24000000 7.86000000 0 0 0
122 1 9.15000000 19.30000000 3.31000000 0 0 0
123 1 10.54000000 20.20000000 1.10000000 0 0 0
124 1 10.38000000 15.60000000 1.12000000 0 0 0
125 1 14.36000000 15.57000000 3.33000000 0 0 0
126 1 14.36000000 15.59000000 7.83000000 0 0 0
127 1 14.44000000 20.19000000 7.86000000 0 0 0
128 1 9.20000000 16.48000000 7.87000000 0 0 0
129 1 17.00000000 16.54000000 3.41000000 0 0 0
130 1 20.92000000 19.18000000 1.06000000 0 0 0
131 1 22.18000000 20.17000000 3.31000000 0 0 0
132 1 20.95000000 19.27000000 5.61000000 0 0 0
133 1 18.31000000 15.54000000 5.63000000 0 0 0
134 1 18.33000000 20.14000000 5.65000000 0 0 0
135 1 20.84000000 16.42000000 1.16000000 0 0 0
136 1 20.90000000 16.51000000 5.67000000 0 0 0
137 1 17.02000000 19.24000000 7.91000000 0 0 0
138 1 17.05000000 19.30000000 3.36000000 0 0 0
139 1 18.33000000 20.12000000 1.06000000 0 0 0
140 1 18.21000000 15.60000000 1.12000000 0 0 0
141 1 22.14000000 15.50000000 3.42000000 0 0 0
142 1 22.21000000 15.52000000 7.88000000 0 0 0
143 1 22.18000000 20.19000000 7.90000000 0 0 0
144 1 17.02000000 16.48000000 7.87000000 0 0 0
145 1 1.35000000 1.83000000 12.36000000 0 0 0
146 1 5.22000000 4.55000000 10.10000000 0 0 0
147 1 6.59000000 5.39000000 12.34000000 0 0 0
148 1 5.28000000 4.49000000 14.60000000 0 0 0
149 1 2.59000000 0.84000000 14.62000000 0 0 0
150 1 2.71000000 5.51000000 14.64000000 0 0 0
151 1 5.17000000 1.79000000 10.15000000 0 0 0
152 1 5.20000000 1.73000000 14.61000000 0 0 0
153 1 1.38000000 4.54000000 16.85000000 0 0 0
154 1 1.32000000 4.59000000 12.44000000 0 0 0
155 1 2.63000000 5.49000000 10.18000000 0 0 0
156 1 2.59000000 0.82000000 10.11000000 0 0 0
157 1 6.49000000 0.79000000 12.36000000 0 0 0
158 1 6.46000000 0.88000000 16.91000000 0 0 0
159 1 6.59000000 5.41000000 16.85000000 0 0 0
160 1 1.30000000 1.78000000 16.86000000 0 0 0
161 1 9.12000000 1.76000000 12.45000000 0 0 0
162 1 13.05000000 4.55000000 10.19000000 0 0 0
163 1 14.35000000 5.46000000 12.44000000 0 0 0
164 1 13.05000000 4.57000000 14.69000000 0 0 0
165 1 10.49000000 0.84000000 14.66000000 0 0 0
166 1 10.46000000 5.51000000 14.60000000 0 0 0
167 1 12.99000000 1.79000000 10.15000000 0 0 0
168 1 13.07000000 1.81000000 14.70000000 0 0 0
169 1 9.20000000 4.54000000 16.85000000 0 0 0
170 1 9.20000000 4.52000000 12.35000000 0 0 0
171 1 10.46000000 5.49000000 10.09000000 0 0 0
172 1 10.38000000 0.89000000 10.16000000 0 0 0
173 1 14.29000000 0.87000000 12.41000000 0 0 0
174 1 14.31000000 0.81000000 16.96000000 0 0 0
175 1 14.36000000 5.48000000 16.94000000 0 0 0
176 1 9.12000000 1.78000000 16.86000000 0 0 0
177 1 16.94000000 1.76000000 12.45000000 0 0 0
178 1 20.87000000 4.55000000 10.10000000 0 0 0
179 1 22.15000000 5.39000000 12.39000000 0 0 0
180 1 20.87000000 4.57000000 14.69000000 0 0 0
181 1 18.29000000 0.91000000 14.71000000 0 0 0
182 1 18.25000000 5.43000000 14.64000000 0 0 0
183 1 20.90000000 1.79000000 10.11000000 0 0 0
184 1 20.90000000 1.81000000 14.61000000 0 0 0
185 1 16.97000000 4.61000000 16.94000000 0 0 0
186 1 16.94000000 4.52000000 12.39000000 0 0 0
187 1 18.25000000 5.41000000 10.14000000 0 0 0
188 1 18.29000000 0.89000000 10.20000000 0 0 0
189 1 22.19000000 0.87000000 12.36000000 0 0 0
190 1 22.14000000 0.81000000 16.87000000 0 0 0
191 1 22.26000000 5.48000000 16.89000000 0 0 0
192 1 16.92000000 1.85000000 16.91000000 0 0 0
193 1 1.30000000 9.11000000 12.36000000 0 0 0
194 1 5.22000000 11.90000000 10.10000000 0 0 0
195 1 6.51000000 12.74000000 12.39000000 0 0 0
196 1 5.28000000 11.84000000 14.69000000 0 0 0
197 1 2.56000000 8.27000000 14.66000000 0 0 0
198 1 2.69000000 12.79000000 14.69000000 0 0 0
199 1 5.25000000 9.14000000 10.20000000 0 0 0
200 1 5.20000000 9.08000000 14.70000000 0 0 0
201 1 1.38000000 11.89000000 16.95000000 0 0 0
202 1 1.38000000 11.87000000 12.44000000 0 0 0
203 1 2.63000000 12.84000000 10.18000000 0 0 0
204 1 2.64000000 8.25000000 10.11000000 0 0 0
205 1 6.49000000 8.14000000 12.46000000 0 0 0
206 1 6.57000000 8.16000000 16.91000000 0 0 0
207 1 6.59000000 12.76000000 16.94000000 0 0 0
208 1 1.30000000 9.13000000 16.96000000 0 0 0
209 1 9.09000000 9.19000000 12.41000000 0 0 0
210 1 13.13000000 11.90000000 10.14000000 0 0 0
211 1 14.44000000 12.82000000 12.39000000 0 0 0
212 1 13.05000000 11.92000000 14.60000000 0 0 0
213 1 10.46000000 8.27000000 14.62000000 0 0 0
214 1 10.46000000 12.86000000 14.69000000 0 0 0
215 1 13.07000000 9.14000000 10.11000000 0 0 0
216 1 13.07000000 9.16000000 14.61000000 0 0 0
217 1 9.20000000 11.89000000 16.95000000 0 0 0
218 1 9.15000000 11.95000000 12.44000000 0 0 0
219 1 10.51000000 12.77000000 10.18000000 0 0 0
220 1 10.46000000 8.25000000 10.20000000 0 0 0
221 1 14.36000000 8.22000000 12.36000000 0 0 0
222 1 14.29000000 8.24000000 16.91000000 0 0 0
223 1 14.36000000 12.83000000 16.85000000 0 0 0
224 1 9.20000000 9.13000000 16.91000000 0 0 0
225 1 17.02000000 9.11000000 12.41000000 0 0 0
226 1 20.87000000 11.90000000 10.19000000 0 0 0
227 1 22.26000000 12.82000000 12.39000000 0 0 0
228 1 20.95000000 11.92000000 14.65000000 0 0 0
229 1 18.23000000 8.19000000 14.71000000 0 0 0
230 1 18.33000000 12.79000000 14.69000000 0 0 0
231 1 20.90000000 9.14000000 10.20000000 0 0 0
232 1 20.82000000 9.16000000 14.66000000 0 0 0
233 1 16.97000000 11.96000000 16.94000000 0 0 0
234 1 17.02000000 11.87000000 12.44000000 0 0 0
235 1 18.25000000 12.77000000 10.14000000 0 0 0
236 1 18.31000000 8.17000000 10.16000000 0 0 0
237 1 22.14000000 8.14000000 12.46000000 0 0 0
238 1 22.11000000 8.24000000 16.91000000 0 0 0
239 1 22.23000000 12.76000000 16.94000000 0 0 0
240 1 16.92000000 9.21000000 16.91000000 0 0 0
241 1 1.27000000 16.54000000 12.41000000 0 0 0
242 1 5.28000000 19.18000000 10.19000000 0 0 0
243 1 6.59000000 20.09000000 12.44000000 0 0 0
244 1 5.28000000 19.20000000 14.69000000 0 0 0
245 1 2.59000000 15.54000000 14.62000000 0 0 0
246 1 2.69000000 20.14000000 14.69000000 0 0 0
247 1 5.20000000 16.42000000 10.20000000 0 0 0
248 1 5.20000000 16.44000000 14.70000000 0 0 0
249 1 1.38000000 19.24000000 16.95000000 0 0 0
250 1 1.40000000 19.30000000 12.39000000 0 0 0
251 1 2.69000000 20.12000000 10.09000000 0 0 0
252 1 2.56000000 15.60000000 10.16000000 0 0 0
253 1 6.49000000 15.50000000 12.46000000 0 0 0
254 1 6.49000000 15.52000000 16.96000000 0 0 0
255 1 6.61000000 20.19000000 16.89000000 0 0 0
256 1 1.30000000 16.48000000 16.86000000 0 0 0
257 1 9.12000000 16.47000000 12.36000000 0 0 0
258 1 13.05000000 19.25000000 10.10000000 0 0 0
259 1 14.35000000 20.17000000 12.34000000 0 0 0
260 1 13.05000000 19.27000000 14.60000000 0 0 0
261 1 10.46000000 15.62000000 14.62000000 0 0 0
262 1 10.43000000 20.14000000 14.64000000 0 0 0
263 1 13.07000000 16.49000000 10.11000000 0 0 0
264 1 13.07000000 16.51000000 14.61000000 0 0 0
265 1 9.20000000 19.24000000 16.95000000 0 0 0
266 1 9.20000000 19.23000000 12.35000000 0 0 0
267 1 10.46000000 20.20000000 10.09000000 0 0 0
268 1 10.49000000 15.52000000 10.16000000 0 0 0
269 1 14.36000000 15.57000000 12.36000000 0 0 0
270 1 14.29000000 15.59000000 16.91000000 0 0 0
271 1 14.41000000 20.11000000 16.85000000 0 0 0
272 1 9.12000000 16.48000000 16.86000000 0 0 0
273 1 17.00000000 16.54000000 12.36000000 0 0 0
274 1 20.87000000 19.25000000 10.19000000 0 0 0
275 1 22.26000000 20.17000000 12.39000000 0 0 0
276 1 20.92000000 19.20000000 14.60000000 0 0 0
277 1 18.23000000 15.54000000 14.62000000 0 0 0
278 1 18.36000000 20.21000000 14.64000000 0 0 0
279 1 20.90000000 16.49000000 10.11000000 0 0 0
280 1 20.84000000 16.44000000 14.70000000 0 0 0
281 1 17.02000000 19.24000000 16.85000000 0 0 0
282 1 16.97000000 19.30000000 12.44000000 0 0 0
283 1 18.28000000 20.20000000 10.18000000 0 0 0
284 1 18.31000000 15.52000000 10.16000000 0 0 0
285 1 22.11000000 15.57000000 12.41000000 0 0 0
286 1 22.14000000 15.52000000 16.96000000 0 0 0
287 1 22.23000000 20.11000000 16.85000000 0 0 0
288 1 16.94000000 16.48000000 16.86000000 0 0 0
289 2 1.75000000 1.48000000 4.12000000 0 0 0
290 2 1.33000000 2.71000000 3.36000000 0 0 0
291 2 5.68000000 4.83000000 1.85000000 0 0 0
292 2 5.24000000 3.59000000 1.10000000 0 0 0
293 2 6.56000000 6.34000000 3.34000000 0 0 0
294 2 6.13000000 5.10000000 4.10000000 0 0 0
295 2 5.68000000 4.84000000 6.36000000 0 0 0
296 2 5.24000000 3.61000000 5.60000000 0 0 0
297 2 2.63000000 -0.04000000 5.62000000 0 0 0
298 2 2.18000000 1.19000000 6.37000000 0 0 0
299 2 2.21000000 5.17000000 4.86000000 0 0 0
300 2 3.52000000 5.16000000 5.62000000 0 0 0
301 2 5.65000000 1.45000000 0.36000000 0 0 0
302 2 5.65000000 1.45000000 1.87000000 0 0 0
303 2 4.35000000 1.48000000 5.63000000 0 0 0
304 2 5.66000000 1.46000000 4.88000000 0 0 0
305 2 1.34000000 3.65000000 7.88000000 0 0 0
306 2 1.78000000 4.88000000 7.11000000 0 0 0
307 2 0.48000000 4.84000000 3.36000000 0 0 0
308 2 1.79000000 4.85000000 2.61000000 0 0 0
309 2 2.64000000 6.37000000 1.11000000 0 0 0
310 2 3.52000000 5.14000000 1.10000000 0 0 0
311 2 2.17000000 1.16000000 1.87000000 0 0 0
312 2 3.49000000 1.15000000 1.11000000 0 0 0
313 2 7.37000000 1.16000000 3.37000000 0 0 0
314 2 6.52000000 -0.09000000 3.37000000 0 0 0
315 2 6.07000000 1.15000000 7.13000000 0 0 0
316 2 7.38000000 1.16000000 7.89000000 0 0 0
317 2 6.55000000 6.36000000 7.85000000 0 0 0
318 2 6.13000000 5.12000000 8.60000000 0 0 0
319 2 1.77000000 1.51000000 8.62000000 0 0 0
320 2 0.46000000 1.51000000 7.86000000 0 0 0
321 2 9.15000000 2.71000000 3.36000000 0 0 0
322 2 9.57000000 1.48000000 4.12000000 0 0 0
323 2 13.06000000 3.59000000 1.12000000 0 0 0
324 2 13.50000000 4.82000000 0.36000000 0 0 0
325 2 13.95000000 5.11000000 2.61000000 0 0 0
326 2 14.37000000 6.34000000 3.37000000 0 0 0
327 2 13.52000000 4.82000000 4.86000000 0 0 0
328 2 12.21000000 4.84000000 5.62000000 0 0 0
329 2 10.00000000 1.18000000 6.37000000 0 0 0
330 2 11.31000000 1.17000000 5.61000000 0 0 0
331 2 10.48000000 6.39000000 5.59000000 0 0 0
332 2 10.05000000 5.15000000 6.35000000 0 0 0
333 2 13.48000000 1.46000000 0.36000000 0 0 0
334 2 12.18000000 1.46000000 1.13000000 0 0 0
335 2 13.05000000 2.69000000 5.63000000 0 0 0
336 2 13.48000000 1.44000000 4.88000000 0 0 0
337 2 9.61000000 4.86000000 8.62000000 0 0 0
338 2 8.30000000 4.86000000 7.86000000 0 0 0
339 2 9.61000000 4.86000000 4.11000000 0 0 0
340 2 8.30000000 4.84000000 3.35000000 0 0 0
341 2 11.35000000 5.14000000 1.09000000 0 0 0
342 2 10.04000000 5.16000000 1.85000000 0 0 0
343 2 10.45000000 -0.06000000 1.11000000 0 0 0
344 2 10.01000000 1.17000000 1.87000000 0 0 0
345 2 13.89000000 1.13000000 2.63000000 0 0 0
346 2 15.20000000 1.14000000 3.39000000 0 0 0
347 2 13.91000000 1.16000000 7.13000000 0 0 0
348 2 14.36000000 -0.07000000 7.88000000 0 0 0
349 2 14.37000000 6.36000000 7.88000000 0 0 0
350 2 13.95000000 5.13000000 7.11000000 0 0 0
351 2 9.57000000 1.49000000 8.62000000 0 0 0
352 2 9.15000000 2.73000000 7.86000000 0 0 0
353 2 17.40000000 1.48000000 4.12000000 0 0 0
354 2 16.97000000 2.71000000 3.36000000 0 0 0
355 2 21.34000000 4.81000000 1.85000000 0 0 0
356 2 20.03000000 4.82000000 1.09000000 0 0 0
357 2 22.20000000 6.34000000 3.34000000 0 0 0
358 2 21.77000000 5.10000000 4.10000000 0 0 0
359 2 21.33000000 4.84000000 6.36000000 0 0 0
360 2 20.88000000 3.61000000 5.60000000 0 0 0
361 2 17.82000000 1.18000000 6.37000000 0 0 0
362 2 19.13000000 1.17000000 5.61000000 0 0 0
363 2 17.86000000 5.18000000 6.35000000 0 0 0
364 2 19.17000000 5.16000000 5.60000000 0 0 0
365 2 20.87000000 2.67000000 1.10000000 0 0 0
366 2 21.30000000 1.43000000 1.86000000 0 0 0
367 2 21.29000000 1.46000000 4.87000000 0 0 0
368 2 21.29000000 1.47000000 6.38000000 0 0 0
369 2 16.12000000 4.86000000 7.86000000 0 0 0
370 2 17.43000000 4.86000000 8.62000000 0 0 0
371 2 17.44000000 4.86000000 4.11000000 0 0 0
372 2 16.12000000 4.84000000 3.35000000 0 0 0
373 2 17.87000000 5.16000000 0.34000000 0 0 0
374 2 17.87000000 5.16000000 1.86000000 0 0 0
375 2 17.82000000 1.16000000 1.87000000 0 0 0
376 2 19.13000000 1.15000000 1.11000000 0 0 0
377 2 23.02000000 1.16000000 3.37000000 0 0 0
378 2 22.16000000 -0.09000000 3.37000000 0 0 0
379 2 22.18000000 -0.07000000 7.86000000 0 0 0
380 2 21.73000000 1.15000000 8.63000000 0 0 0
381 2 23.08000000 5.16000000 7.85000000 0 0 0
382 2 21.77000000 5.14000000 8.61000000 0 0 0
383 2 16.11000000 1.50000000 7.87000000 0 0 0
384 2 16.98000000 2.73000000 7.87000000 0 0 0
385 2 0.46000000 8.84000000 3.36000000 0 0 0
386 2 1.77000000 8.85000000 4.12000000 0 0 0
387 2 5.69000000 12.16000000 0.36000000 0 0 0
388 2 4.38000000 12.17000000 1.12000000 0 0 0
389 2 6.12000000 12.48000000 2.61000000 0 0 0
390 2 7.43000000 12.49000000 3.36000000 0 0 0
391 2 5.70000000 12.17000000 4.86000000 0 0 0
392 2 4.38000000 12.19000000 5.62000000 0 0 0
393 2 2.63000000 7.31000000 5.62000000 0 0 0
394 2 2.18000000 8.54000000 6.37000000 0 0 0
395 2 2.23000000 12.53000000 6.36000000 0 0 0
396 2 2.23000000 12.52000000 4.85000000 0 0 0
397 2 5.24000000 10.02000000 1.11000000 0 0 0
398 2 4.36000000 8.79000000 1.12000000 0 0 0
399 2 5.24000000 10.04000000 5.62000000 0 0 0
400 2 4.36000000 8.81000000 5.62000000 0 0 0
401 2 0.49000000 12.24000000 7.86000000 0 0 0
402 2 1.37000000 11.01000000 7.87000000 0 0 0
403 2 1.33000000 10.99000000 3.37000000 0 0 0
404 2 1.78000000 12.22000000 2.61000000 0 0 0
405 2 2.23000000 12.49000000 0.35000000 0 0 0
406 2 2.65000000 13.72000000 1.13000000 0 0 0
407 2 2.20000000 8.52000000 0.36000000 0 0 0
408 2 2.19000000 8.52000000 1.88000000 0 0 0
409 2 6.09000000 8.48000000 2.61000000 0 0 0
410 2 6.09000000 8.49000000 4.13000000 0 0 0
411 2 6.07000000 8.50000000 7.13000000 0 0 0
412 2 7.38000000 8.51000000 7.89000000 0 0 0
413 2 6.13000000 12.50000000 7.10000000 0 0 0
414 2 6.14000000 12.50000000 8.62000000 0 0 0
415 2 1.77000000 8.86000000 8.62000000 0 0 0
416 2 0.46000000 8.86000000 7.86000000 0 0 0
417 2 8.28000000 8.84000000 3.39000000 0 0 0
418 2 9.59000000 8.84000000 2.62000000 0 0 0
419 2 13.51000000 12.18000000 1.85000000 0 0 0
420 2 13.06000000 10.94000000 1.10000000 0 0 0
421 2 15.25000000 12.49000000 3.35000000 0 0 0
422 2 13.94000000 12.48000000 4.10000000 0 0 0
423 2 13.52000000 12.18000000 6.36000000 0 0 0
424 2 12.21000000 12.19000000 5.60000000 0 0 0
425 2 10.00000000 8.53000000 4.88000000 0 0 0
426 2 11.31000000 8.52000000 5.63000000 0 0 0
427 2 10.05000000 12.51000000 4.86000000 0 0 0
428 2 10.47000000 13.74000000 5.62000000 0 0 0
429 2 13.48000000 8.81000000 0.36000000 0 0 0
430 2 12.18000000 8.81000000 1.13000000 0 0 0
431 2 13.48000000 8.80000000 4.88000000 0 0 0
432 2 13.05000000 10.04000000 5.63000000 0 0 0
433 2 9.61000000 12.22000000 7.11000000 0 0 0
434 2 8.30000000 12.21000000 7.87000000 0 0 0
435 2 9.61000000 12.22000000 2.61000000 0 0 0
436 2 9.16000000 10.99000000 3.37000000 0 0 0
437 2 10.04000000 12.52000000 0.35000000 0 0 0
438 2 11.35000000 12.50000000 1.11000000 0 0 0
439 2 10.01000000 8.53000000 0.37000000 0 0 0
440 2 10.45000000 7.29000000 1.12000000 0 0 0
441 2 13.89000000 8.48000000 2.63000000 0 0 0
442 2 15.20000000 8.49000000 3.39000000 0 0 0
443 2 13.91000000 8.50000000 7.12000000 0 0 0
444 2 13.91000000 8.50000000 8.64000000 0 0 0
445 2 13.94000000 12.49000000 8.61000000 0 0 0
446 2 15.26000000 12.51000000 7.85000000 0 0 0
447 2 9.57000000 8.84000000 7.13000000 0 0 0
448 2 9.15000000 10.09000000 7.88000000 0 0 0
449 2 16.97000000 10.07000000 3.38000000 0 0 0
450 2 17.40000000 8.83000000 2.62000000 0 0 0
451 2 21.32000000 12.16000000 0.35000000 0 0 0
452 2 21.32000000 12.16000000 1.86000000 0 0 0
453 2 23.07000000 12.48000000 3.36000000 0 0 0
454 2 22.18000000 13.70000000 3.36000000 0 0 0
455 2 20.03000000 12.19000000 5.62000000 0 0 0
456 2 21.34000000 12.17000000 4.86000000 0 0 0
457 2 18.28000000 7.31000000 5.63000000 0 0 0
458 2 17.83000000 8.54000000 4.88000000 0 0 0
459 2 18.30000000 13.74000000 5.59000000 0 0 0
460 2 17.87000000 12.50000000 6.35000000 0 0 0
461 2 20.87000000 10.02000000 1.13000000 0 0 0
462 2 21.30000000 8.79000000 0.37000000 0 0 0
463 2 20.00000000 8.81000000 5.62000000 0 0 0
464 2 20.89000000 10.04000000 5.62000000 0 0 0
465 2 17.43000000 12.24000000 8.61000000 0 0 0
466 2 16.98000000 11.01000000 7.85000000 0 0 0
467 2 17.42000000 12.20000000 2.60000000 0 0 0
468 2 17.42000000 12.21000000 4.11000000 0 0 0
469 2 17.86000000 12.52000000 0.35000000 0 0 0
470 2 19.17000000 12.50000000 1.11000000 0 0 0
471 2 19.12000000 8.53000000 1.12000000 0 0 0
472 2 18.25000000 7.29000000 1.11000000 0 0 0
473 2 21.74000000 8.48000000 2.61000000 0 0 0
474 2 21.74000000 8.49000000 4.13000000 0 0 0
475 2 22.18000000 7.28000000 7.88000000 0 0 0
476 2 21.73000000 8.52000000 7.13000000 0 0 0
477 2 21.77000000 12.48000000 7.11000000 0 0 0
478 2 22.20000000 13.72000000 7.88000000 0 0 0
479 2 17.41000000 8.86000000 7.13000000 0 0 0
480 2 16.10000000 8.86000000 7.89000000 0 0 0
481 2 1.33000000 17.42000000 3.36000000 0 0 0
482 2 1.75000000 16.19000000 4.12000000 0 0 0
483 2 4.39000000 19.54000000 1.10000000 0 0 0
484 2 5.25000000 18.30000000 1.11000000 0 0 0
485 2 6.12000000 19.83000000 2.61000000 0 0 0
486 2 7.43000000 19.84000000 3.36000000 0 0 0
487 2 5.68000000 19.53000000 6.37000000 0 0 0
488 2 5.68000000 19.53000000 4.85000000 0 0 0
489 2 2.63000000 14.66000000 5.62000000 0 0 0
490 2 2.18000000 15.90000000 6.37000000 0 0 0
491 2 2.21000000 19.88000000 6.35000000 0 0 0
492 2 3.52000000 19.87000000 5.60000000 0 0 0
493 2 5.65000000 16.16000000 0.36000000 0 0 0
494 2 5.65000000 16.15000000 1.87000000 0 0 0
495 2 4.36000000 16.17000000 5.62000000 0 0 0
496 2 5.24000000 17.39000000 5.62000000 0 0 0
497 2 1.78000000 19.59000000 8.61000000 0 0 0
498 2 1.33000000 18.36000000 7.85000000 0 0 0
499 2 1.78000000 19.56000000 2.60000000 0 0 0
500 2 1.78000000 19.56000000 4.11000000 0 0 0
501 2 2.65000000 21.08000000 1.13000000 0 0 0
502 2 2.23000000 19.85000000 0.35000000 0 0 0
503 2 3.49000000 15.85000000 1.11000000 0 0 0
504 2 2.17000000 15.87000000 1.87000000 0 0 0
505 2 6.53000000 14.62000000 3.37000000 0 0 0
506 2 6.09000000 15.85000000 4.12000000 0 0 0
507 2 6.09000000 15.87000000 7.13000000 0 0 0
508 2 6.54000000 14.63000000 7.88000000 0 0 0
509 2 6.53000000 21.07000000 7.86000000 0 0 0
510 2 7.43000000 19.85000000 7.86000000 0 0 0
511 2 1.77000000 16.22000000 8.62000000 0 0 0
512 2 0.46000000 16.21000000 7.86000000 0 0 0
513 2 9.59000000 16.20000000 2.62000000 0 0 0
514 2 8.28000000 16.19000000 3.39000000 0 0 0
515 2 13.08000000 18.30000000 1.11000000 0 0 0
516 2 12.21000000 19.54000000 1.10000000 0 0 0
517 2 14.37000000 21.05000000 3.37000000 0 0 0
518 2 13.95000000 19.81000000 2.61000000 0 0 0
519 2 13.06000000 18.32000000 5.62000000 0 0 0
520 2 13.51000000 19.54000000 4.86000000 0 0 0
521 2 10.01000000 15.89000000 6.38000000 0 0 0
522 2 10.02000000 15.88000000 4.87000000 0 0 0
523 2 10.47000000 21.10000000 5.61000000 0 0 0
524 2 11.34000000 19.86000000 5.61000000 0 0 0
525 2 13.47000000 16.15000000 1.87000000 0 0 0
526 2 13.47000000 16.16000000 0.36000000 0 0 0
527 2 12.18000000 16.18000000 5.61000000 0 0 0
528 2 13.49000000 16.17000000 6.37000000 0 0 0
529 2 9.60000000 19.57000000 8.62000000 0 0 0
530 2 9.60000000 19.58000000 7.11000000 0 0 0
531 2 9.61000000 19.58000000 4.10000000 0 0 0
532 2 9.16000000 18.34000000 3.35000000 0 0 0
533 2 10.05000000 19.86000000 1.86000000 0 0 0
534 2 10.05000000 19.87000000 0.34000000 0 0 0
535 2 11.30000000 15.88000000 1.12000000 0 0 0
536 2 10.43000000 14.64000000 1.11000000 0 0 0
537 2 13.91000000 15.85000000 4.12000000 0 0 0
538 2 14.35000000 14.62000000 3.37000000 0 0 0
539 2 13.91000000 15.86000000 8.63000000 0 0 0
540 2 14.36000000 14.63000000 7.86000000 0 0 0
541 2 13.95000000 19.85000000 7.10000000 0 0 0
542 2 13.96000000 19.85000000 8.62000000 0 0 0
543 2 8.28000000 16.20000000 7.87000000 0 0 0
544 2 9.16000000 17.44000000 7.87000000 0 0 0
545 2 16.10000000 16.19000000 3.39000000 0 0 0
546 2 17.41000000 16.20000000 2.62000000 0 0 0
547 2 20.03000000 19.53000000 1.09000000 0 0 0
548 2 21.34000000 19.52000000 1.85000000 0 0 0
549 2 23.08000000 19.84000000 3.35000000 0 0 0
550 2 21.76000000 19.84000000 4.10000000 0 0 0
551 2 20.04000000 19.56000000 5.61000000 0 0 0
552 2 20.90000000 18.32000000 5.61000000 0 0 0
553 2 17.84000000 15.89000000 6.38000000 0 0 0
554 2 17.84000000 15.88000000 4.87000000 0 0 0
555 2 17.87000000 19.86000000 4.86000000 0 0 0
556 2 18.30000000 21.10000000 5.62000000 0 0 0
557 2 20.87000000 17.38000000 1.13000000 0 0 0
558 2 21.30000000 16.14000000 0.37000000 0 0 0
559 2 21.31000000 16.17000000 4.88000000 0 0 0
560 2 20.00000000 16.18000000 5.63000000 0 0 0
561 2 17.44000000 19.58000000 7.11000000 0 0 0
562 2 16.12000000 19.57000000 7.87000000 0 0 0
563 2 17.01000000 18.34000000 3.36000000 0 0 0
564 2 16.13000000 19.58000000 3.36000000 0 0 0
565 2 18.30000000 21.08000000 1.09000000 0 0 0
566 2 17.87000000 19.84000000 1.85000000 0 0 0
567 2 18.25000000 14.64000000 1.11000000 0 0 0
568 2 19.12000000 15.88000000 1.12000000 0 0 0
569 2 21.72000000 15.83000000 2.63000000 0 0 0
570 2 23.03000000 15.84000000 3.39000000 0 0 0
571 2 21.74000000 15.85000000 8.64000000 0 0 0
572 2 21.74000000 15.86000000 7.12000000 0 0 0
573 2 21.76000000 19.85000000 7.11000000 0 0 0
574 2 23.08000000 19.86000000 7.86000000 0 0 0
575 2 16.98000000 17.44000000 7.87000000 0 0 0
576 2 16.11000000 16.20000000 7.87000000 0 0 0
577 2 0.46000000 1.49000000 12.39000000 0 0 0
578 2 1.77000000 1.50000000 13.15000000 0 0 0
579 2 5.24000000 3.59000000 10.14000000 0 0 0
580 2 5.68000000 4.83000000 10.89000000 0 0 0
581 2 6.56000000 6.34000000 12.38000000 0 0 0
582 2 6.13000000 5.10000000 13.14000000 0 0 0
583 2 5.70000000 4.83000000 15.39000000 0 0 0
584 2 4.38000000 4.84000000 14.64000000 0 0 0
585 2 3.49000000 1.17000000 14.65000000 0 0 0
586 2 2.17000000 1.18000000 15.41000000 0 0 0
587 2 2.23000000 5.18000000 15.40000000 0 0 0
588 2 2.23000000 5.17000000 13.89000000 0 0 0
589 2 5.65000000 1.45000000 10.91000000 0 0 0
590 2 5.65000000 1.45000000 9.39000000 0 0 0
591 2 5.23000000 2.69000000 14.64000000 0 0 0
592 2 5.65000000 1.45000000 15.41000000 0 0 0
593 2 1.79000000 4.86000000 17.65000000 0 0 0
594 2 0.48000000 4.86000000 16.89000000 0 0 0
595 2 1.78000000 4.87000000 11.65000000 0 0 0
596 2 1.33000000 3.64000000 12.41000000 0 0 0
597 2 2.22000000 5.17000000 9.39000000 0 0 0
598 2 3.52000000 5.14000000 10.15000000 0 0 0
599 2 3.49000000 1.15000000 10.15000000 0 0 0
600 2 2.17000000 1.16000000 10.90000000 0 0 0
601 2 6.07000000 1.13000000 13.15000000 0 0 0
602 2 7.38000000 1.14000000 12.39000000 0 0 0
603 2 6.52000000 -0.07000000 16.91000000 0 0 0
604 2 7.37000000 1.18000000 16.91000000 0 0 0
605 2 6.55000000 6.36000000 16.89000000 0 0 0
606 2 6.13000000 5.12000000 17.64000000 0 0 0
607 2 1.33000000 2.73000000 16.90000000 0 0 0
608 2 1.75000000 1.49000000 17.66000000 0 0 0
609 2 9.57000000 1.47000000 11.66000000 0 0 0
610 2 9.15000000 2.71000000 12.41000000 0 0 0
611 2 13.50000000 4.82000000 9.39000000 0 0 0
612 2 13.06000000 3.59000000 10.15000000 0 0 0
613 2 15.25000000 5.14000000 12.40000000 0 0 0
614 2 13.94000000 5.12000000 11.64000000 0 0 0
615 2 13.06000000 3.61000000 14.66000000 0 0 0
616 2 13.51000000 4.84000000 13.90000000 0 0 0
617 2 10.02000000 1.18000000 13.90000000 0 0 0
618 2 10.01000000 1.18000000 15.42000000 0 0 0
619 2 11.35000000 5.16000000 14.63000000 0 0 0
620 2 10.04000000 5.18000000 15.39000000 0 0 0
621 2 13.47000000 1.45000000 9.39000000 0 0 0
622 2 13.47000000 1.45000000 10.91000000 0 0 0
623 2 12.18000000 1.48000000 14.67000000 0 0 0
624 2 13.49000000 1.46000000 13.91000000 0 0 0
625 2 9.61000000 4.86000000 17.65000000 0 0 0
626 2 8.30000000 4.86000000 16.89000000 0 0 0
627 2 8.30000000 4.84000000 12.39000000 0 0 0
628 2 9.61000000 4.86000000 13.14000000 0 0 0
629 2 10.04000000 5.16000000 10.89000000 0 0 0
630 2 11.35000000 5.14000000 10.13000000 0 0 0
631 2 11.30000000 1.18000000 10.16000000 0 0 0
632 2 10.43000000 -0.06000000 10.15000000 0 0 0
633 2 14.34000000 -0.09000000 12.40000000 0 0 0
634 2 15.20000000 1.16000000 12.41000000 0 0 0
635 2 15.20000000 1.16000000 16.93000000 0 0 0
636 2 13.89000000 1.15000000 16.17000000 0 0 0
637 2 15.26000000 5.16000000 16.90000000 0 0 0
638 2 13.94000000 5.14000000 16.15000000 0 0 0
639 2 9.57000000 1.49000000 17.66000000 0 0 0
640 2 9.15000000 2.73000000 16.90000000 0 0 0
641 2 17.40000000 1.47000000 11.66000000 0 0 0
642 2 16.97000000 2.71000000 12.41000000 0 0 0
643 2 20.88000000 3.59000000 10.14000000 0 0 0
644 2 21.33000000 4.83000000 10.89000000 0 0 0